phonopy:
  version: 2.20.0
  frequency_unit_conversion_factor: 15.633302
  symmetry_tolerance: 1.0e-05
  calculator: aims
  configuration:
    create_displacements: '".true."'
    dim: '"2 2 2"'
    calculator: '"aims"'
space_group:
  type: Fm-3m
  number: 225
  Hall_symbol: -F 4 2 3
supercell_matrix:
- - 2
  - 0
  - 0
- - 0
  - 2
  - 0
- - 0
  - 0
  - 2
primitive_cell:
  lattice:
  - - 0.0
    - 2.0605
    - 2.0605
  - - 2.0605
    - 0.0
    - 2.0605
  - - 2.0605
    - 2.0605
    - 0.0
  points:
  - symbol: Al
    coordinates:
    - 0.0
    - 0.0
    - 0.0
    mass: 26.981539
  reciprocal_lattice:
  - - -0.242659548653239
    - 0.242659548653239
    - 0.242659548653239
  - - 0.242659548653239
    - -0.242659548653239
    - 0.242659548653239
  - - 0.24265954865324
    - 0.24265954865324
    - -0.24265954865324
unit_cell:
  lattice:
  - - 0.0
    - 2.0605
    - 2.0605
  - - 2.0605
    - 0.0
    - 2.0605
  - - 2.0605
    - 2.0605
    - 0.0
  points:
  - symbol: Al
    coordinates:
    - 0.0
    - 0.0
    - 0.0
    mass: 26.981539
    reduced_to: 1
supercell:
  lattice:
  - - 0.0
    - 4.121
    - 4.121
  - - 4.121
    - 0.0
    - 4.121
  - - 4.121
    - 4.121
    - 0.0
  points:
  - symbol: Al
    coordinates:
    - 0.0
    - 0.0
    - 0.0
    mass: 26.981539
    reduced_to: 1
  - symbol: Al
    coordinates:
    - 0.5
    - 0.0
    - 0.0
    mass: 26.981539
    reduced_to: 1
  - symbol: Al
    coordinates:
    - 0.0
    - 0.5
    - 0.0
    mass: 26.981539
    reduced_to: 1
  - symbol: Al
    coordinates:
    - 0.5
    - 0.5
    - 0.0
    mass: 26.981539
    reduced_to: 1
  - symbol: Al
    coordinates:
    - 0.0
    - 0.0
    - 0.5
    mass: 26.981539
    reduced_to: 1
  - symbol: Al
    coordinates:
    - 0.5
    - 0.0
    - 0.5
    mass: 26.981539
    reduced_to: 1
  - symbol: Al
    coordinates:
    - 0.0
    - 0.5
    - 0.5
    mass: 26.981539
    reduced_to: 1
  - symbol: Al
    coordinates:
    - 0.5
    - 0.5
    - 0.5
    mass: 26.981539
    reduced_to: 1
displacements:
- atom: 1
  displacement:
  - 0.0
  - 0.0070710678118655
  - 0.0070710678118655
